 DBCSR| CPU Multiplication driver                                           BLAS (U)
 DBCSR| Multrec recursion limit                                              512 (U)
 DBCSR| Multiplication stack size                                           1000 (D)
 DBCSR| Maximum elements for images                                    UNLIMITED (U)
 DBCSR| Multiplicative factor virtual images                                   1 (U)
 DBCSR| Use multiplication densification                                       T (D)
 DBCSR| Multiplication size stacks                                             3 (U)
 DBCSR| Use memory pool for CPU allocation                                     F (U)
 DBCSR| Number of 3D layers                                               SINGLE (U)
 DBCSR| Use MPI memory allocation                                              F (U)
 DBCSR| Use RMA algorithm                                                      F (U)
 DBCSR| Use Communication thread                                               T (U)
 DBCSR| Communication thread load                                             87 (D)
 DBCSR| MPI: My process id                                                     0
 DBCSR| MPI: Number of processes                                            1024
 DBCSR| OMP: Current number of threads                                         1
 DBCSR| OMP: Max number of threads                                             1
 DBCSR| Split modifier for TAS multiplication algorithm                  1.0E+00 (U)


  **** **** ******  **  PROGRAM STARTED AT               2024-09-02 12:04:50.575
 ***** ** ***  *** **   PROGRAM STARTED ON                             nid006831
 **    ****   ******    PROGRAM STARTED BY                               cmmp_kj
 ***** **    ** ** **   PROGRAM PROCESS ID                                260689
  **** **  *******  **  PROGRAM STARTED IN /mnt/lustre/a2fs-work2/work/e05/e05/c
                                           mmp_kj/testing_cp2k_apt_time_indep/cp
                                           2k/cp2k-2023.1/testing_apt_ext/timein
                                           deptest

 CP2K| version string:                                       CP2K version 2023.1
 CP2K| source code revision number:                                  git:b888bd8
 CP2K| cp2kflags: omp libint fftw3 libxc elpa parallel scalapack plumed2 mkl    
 CP2K| is freely available from                            https://www.cp2k.org/
 CP2K| Program compiled at                          Mon  2 Sep 11:10:18 BST 2024
 CP2K| Program compiled on                                                  ln04
 CP2K| Program compiled for                                              ARCHER2
 CP2K| Data directory path    /work/e05/e05/cmmp_kj/testing_cp2k_apt_time_indep/
 CP2K| Input file name                                                 start.inp

 GLOBAL| Force Environment number                                              1
 GLOBAL| Basis set file name                                           BASIS_SET
 GLOBAL| Potential file name                                           POTENTIAL
 GLOBAL| MM Potential file name                                     MM_POTENTIAL
 GLOBAL| Coordinate file name                                            pos.xyz
 GLOBAL| Force Environment number                                              2
 GLOBAL| Basis set file name                                           BASIS_SET
 GLOBAL| Potential file name                                           POTENTIAL
 GLOBAL| MM Potential file name                                     MM_POTENTIAL
 GLOBAL| Coordinate file name                                            pos.xyz
 GLOBAL| Force Environment number                                              3
 GLOBAL| Basis set file name                                           BASIS_SET
 GLOBAL| Potential file name                                           POTENTIAL
 GLOBAL| MM Potential file name                                     MM_POTENTIAL
 GLOBAL| Coordinate file name                                            pos.xyz
 GLOBAL| Method name                                                        CP2K
 GLOBAL| Project name                                                  trying_md
 GLOBAL| Run type                                                             MD
 GLOBAL| FFT library                                                       FFTW3
 GLOBAL| Diagonalization library                                            ELPA
 GLOBAL| DGEMM library                                                      BLAS
 GLOBAL| Minimum number of eigenvectors for ELPA usage                        16
 GLOBAL| Orthonormality check for eigenvectors                          DISABLED
 GLOBAL| Matrix multiplication library                                 ScaLAPACK
 GLOBAL| All-to-all communication in single precision                          F
 GLOBAL| FFTs using library dependent lengths                                  F
 GLOBAL| Grid backend                                                       AUTO
 GLOBAL| Global print level                                                  LOW
 GLOBAL| MPI I/O enabled                                                       T
 GLOBAL| Total number of message passing processes                          1024
 GLOBAL| Number of threads for this process                                    1
 GLOBAL| This output is from process                                           0
 GLOBAL| Stack size for threads created by OpenMP (OMP_STACKSIZE)        default
 GLOBAL| CPU model name                          AMD EPYC 7742 64-Core Processor
 GLOBAL| CPUID                                                              1002

 MEMORY| system memory details [Kb]
 MEMORY|                        rank 0           min           max       average
 MEMORY| MemTotal            263341976     263341976     263341976     263341976
 MEMORY| MemFree             225706320     225316224     226737400     225994853
 MEMORY| Buffers                     0             0             0             0
 MEMORY| Cached                2891008       2454200       2891008       2555259
 MEMORY| Slab                  6126836       6085988       6126836       6111627
 MEMORY| SReclaimable           934912        927376        934912        929692
 MEMORY| MemLikelyFree       229532240     228822664     230118976     229479806

 MIXED_ENV| Number of created MPI groups:                                      1
 MIXED_ENV| Task to group correspondence:
  (   0 :    0)  (   1 :    0)  (   2 :    0)  (   3 :    0)
  (   4 :    0)  (   5 :    0)  (   6 :    0)  (   7 :    0)
  (   8 :    0)  (   9 :    0)  (  10 :    0)  (  11 :    0)
  (  12 :    0)  (  13 :    0)  (  14 :    0)  (  15 :    0)
  (  16 :    0)  (  17 :    0)  (  18 :    0)  (  19 :    0)
  (  20 :    0)  (  21 :    0)  (  22 :    0)  (  23 :    0)
  (  24 :    0)  (  25 :    0)  (  26 :    0)  (  27 :    0)
  (  28 :    0)  (  29 :    0)  (  30 :    0)  (  31 :    0)
  (  32 :    0)  (  33 :    0)  (  34 :    0)  (  35 :    0)
  (  36 :    0)  (  37 :    0)  (  38 :    0)  (  39 :    0)
  (  40 :    0)  (  41 :    0)  (  42 :    0)  (  43 :    0)
  (  44 :    0)  (  45 :    0)  (  46 :    0)  (  47 :    0)
  (  48 :    0)  (  49 :    0)  (  50 :    0)  (  51 :    0)
  (  52 :    0)  (  53 :    0)  (  54 :    0)  (  55 :    0)
  (  56 :    0)  (  57 :    0)  (  58 :    0)  (  59 :    0)
  (  60 :    0)  (  61 :    0)  (  62 :    0)  (  63 :    0)
  (  64 :    0)  (  65 :    0)  (  66 :    0)  (  67 :    0)
  (  68 :    0)  (  69 :    0)  (  70 :    0)  (  71 :    0)
  (  72 :    0)  (  73 :    0)  (  74 :    0)  (  75 :    0)
  (  76 :    0)  (  77 :    0)  (  78 :    0)  (  79 :    0)
  (  80 :    0)  (  81 :    0)  (  82 :    0)  (  83 :    0)
  (  84 :    0)  (  85 :    0)  (  86 :    0)  (  87 :    0)
  (  88 :    0)  (  89 :    0)  (  90 :    0)  (  91 :    0)
  (  92 :    0)  (  93 :    0)  (  94 :    0)  (  95 :    0)
  (  96 :    0)  (  97 :    0)  (  98 :    0)  (  99 :    0)
  ( 100 :    0)  ( 101 :    0)  ( 102 :    0)  ( 103 :    0)
  ( 104 :    0)  ( 105 :    0)  ( 106 :    0)  ( 107 :    0)
  ( 108 :    0)  ( 109 :    0)  ( 110 :    0)  ( 111 :    0)
  ( 112 :    0)  ( 113 :    0)  ( 114 :    0)  ( 115 :    0)
  ( 116 :    0)  ( 117 :    0)  ( 118 :    0)  ( 119 :    0)
  ( 120 :    0)  ( 121 :    0)  ( 122 :    0)  ( 123 :    0)
  ( 124 :    0)  ( 125 :    0)  ( 126 :    0)  ( 127 :    0)
  ( 128 :    0)  ( 129 :    0)  ( 130 :    0)  ( 131 :    0)
  ( 132 :    0)  ( 133 :    0)  ( 134 :    0)  ( 135 :    0)
  ( 136 :    0)  ( 137 :    0)  ( 138 :    0)  ( 139 :    0)
  ( 140 :    0)  ( 141 :    0)  ( 142 :    0)  ( 143 :    0)
  ( 144 :    0)  ( 145 :    0)  ( 146 :    0)  ( 147 :    0)
  ( 148 :    0)  ( 149 :    0)  ( 150 :    0)  ( 151 :    0)
  ( 152 :    0)  ( 153 :    0)  ( 154 :    0)  ( 155 :    0)
  ( 156 :    0)  ( 157 :    0)  ( 158 :    0)  ( 159 :    0)
  ( 160 :    0)  ( 161 :    0)  ( 162 :    0)  ( 163 :    0)
  ( 164 :    0)  ( 165 :    0)  ( 166 :    0)  ( 167 :    0)
  ( 168 :    0)  ( 169 :    0)  ( 170 :    0)  ( 171 :    0)
  ( 172 :    0)  ( 173 :    0)  ( 174 :    0)  ( 175 :    0)
  ( 176 :    0)  ( 177 :    0)  ( 178 :    0)  ( 179 :    0)
  ( 180 :    0)  ( 181 :    0)  ( 182 :    0)  ( 183 :    0)
  ( 184 :    0)  ( 185 :    0)  ( 186 :    0)  ( 187 :    0)
  ( 188 :    0)  ( 189 :    0)  ( 190 :    0)  ( 191 :    0)
  ( 192 :    0)  ( 193 :    0)  ( 194 :    0)  ( 195 :    0)
  ( 196 :    0)  ( 197 :    0)  ( 198 :    0)  ( 199 :    0)
  ( 200 :    0)  ( 201 :    0)  ( 202 :    0)  ( 203 :    0)
  ( 204 :    0)  ( 205 :    0)  ( 206 :    0)  ( 207 :    0)
  ( 208 :    0)  ( 209 :    0)  ( 210 :    0)  ( 211 :    0)
  ( 212 :    0)  ( 213 :    0)  ( 214 :    0)  ( 215 :    0)
  ( 216 :    0)  ( 217 :    0)  ( 218 :    0)  ( 219 :    0)
  ( 220 :    0)  ( 221 :    0)  ( 222 :    0)  ( 223 :    0)
  ( 224 :    0)  ( 225 :    0)  ( 226 :    0)  ( 227 :    0)
  ( 228 :    0)  ( 229 :    0)  ( 230 :    0)  ( 231 :    0)
  ( 232 :    0)  ( 233 :    0)  ( 234 :    0)  ( 235 :    0)
  ( 236 :    0)  ( 237 :    0)  ( 238 :    0)  ( 239 :    0)
  ( 240 :    0)  ( 241 :    0)  ( 242 :    0)  ( 243 :    0)
  ( 244 :    0)  ( 245 :    0)  ( 246 :    0)  ( 247 :    0)
  ( 248 :    0)  ( 249 :    0)  ( 250 :    0)  ( 251 :    0)
  ( 252 :    0)  ( 253 :    0)  ( 254 :    0)  ( 255 :    0)
  ( 256 :    0)  ( 257 :    0)  ( 258 :    0)  ( 259 :    0)
  ( 260 :    0)  ( 261 :    0)  ( 262 :    0)  ( 263 :    0)
  ( 264 :    0)  ( 265 :    0)  ( 266 :    0)  ( 267 :    0)
  ( 268 :    0)  ( 269 :    0)  ( 270 :    0)  ( 271 :    0)
  ( 272 :    0)  ( 273 :    0)  ( 274 :    0)  ( 275 :    0)
  ( 276 :    0)  ( 277 :    0)  ( 278 :    0)  ( 279 :    0)
  ( 280 :    0)  ( 281 :    0)  ( 282 :    0)  ( 283 :    0)
  ( 284 :    0)  ( 285 :    0)  ( 286 :    0)  ( 287 :    0)
  ( 288 :    0)  ( 289 :    0)  ( 290 :    0)  ( 291 :    0)
  ( 292 :    0)  ( 293 :    0)  ( 294 :    0)  ( 295 :    0)
  ( 296 :    0)  ( 297 :    0)  ( 298 :    0)  ( 299 :    0)
  ( 300 :    0)  ( 301 :    0)  ( 302 :    0)  ( 303 :    0)
  ( 304 :    0)  ( 305 :    0)  ( 306 :    0)  ( 307 :    0)
  ( 308 :    0)  ( 309 :    0)  ( 310 :    0)  ( 311 :    0)
  ( 312 :    0)  ( 313 :    0)  ( 314 :    0)  ( 315 :    0)
  ( 316 :    0)  ( 317 :    0)  ( 318 :    0)  ( 319 :    0)
  ( 320 :    0)  ( 321 :    0)  ( 322 :    0)  ( 323 :    0)
  ( 324 :    0)  ( 325 :    0)  ( 326 :    0)  ( 327 :    0)
  ( 328 :    0)  ( 329 :    0)  ( 330 :    0)  ( 331 :    0)
  ( 332 :    0)  ( 333 :    0)  ( 334 :    0)  ( 335 :    0)
  ( 336 :    0)  ( 337 :    0)  ( 338 :    0)  ( 339 :    0)
  ( 340 :    0)  ( 341 :    0)  ( 342 :    0)  ( 343 :    0)
  ( 344 :    0)  ( 345 :    0)  ( 346 :    0)  ( 347 :    0)
  ( 348 :    0)  ( 349 :    0)  ( 350 :    0)  ( 351 :    0)
  ( 352 :    0)  ( 353 :    0)  ( 354 :    0)  ( 355 :    0)
  ( 356 :    0)  ( 357 :    0)  ( 358 :    0)  ( 359 :    0)
  ( 360 :    0)  ( 361 :    0)  ( 362 :    0)  ( 363 :    0)
  ( 364 :    0)  ( 365 :    0)  ( 366 :    0)  ( 367 :    0)
  ( 368 :    0)  ( 369 :    0)  ( 370 :    0)  ( 371 :    0)
  ( 372 :    0)  ( 373 :    0)  ( 374 :    0)  ( 375 :    0)
  ( 376 :    0)  ( 377 :    0)  ( 378 :    0)  ( 379 :    0)
  ( 380 :    0)  ( 381 :    0)  ( 382 :    0)  ( 383 :    0)
  ( 384 :    0)  ( 385 :    0)  ( 386 :    0)  ( 387 :    0)
  ( 388 :    0)  ( 389 :    0)  ( 390 :    0)  ( 391 :    0)
  ( 392 :    0)  ( 393 :    0)  ( 394 :    0)  ( 395 :    0)
  ( 396 :    0)  ( 397 :    0)  ( 398 :    0)  ( 399 :    0)
  ( 400 :    0)  ( 401 :    0)  ( 402 :    0)  ( 403 :    0)
  ( 404 :    0)  ( 405 :    0)  ( 406 :    0)  ( 407 :    0)
  ( 408 :    0)  ( 409 :    0)  ( 410 :    0)  ( 411 :    0)
  ( 412 :    0)  ( 413 :    0)  ( 414 :    0)  ( 415 :    0)
  ( 416 :    0)  ( 417 :    0)  ( 418 :    0)  ( 419 :    0)
  ( 420 :    0)  ( 421 :    0)  ( 422 :    0)  ( 423 :    0)
  ( 424 :    0)  ( 425 :    0)  ( 426 :    0)  ( 427 :    0)
  ( 428 :    0)  ( 429 :    0)  ( 430 :    0)  ( 431 :    0)
  ( 432 :    0)  ( 433 :    0)  ( 434 :    0)  ( 435 :    0)
  ( 436 :    0)  ( 437 :    0)  ( 438 :    0)  ( 439 :    0)
  ( 440 :    0)  ( 441 :    0)  ( 442 :    0)  ( 443 :    0)
  ( 444 :    0)  ( 445 :    0)  ( 446 :    0)  ( 447 :    0)
  ( 448 :    0)  ( 449 :    0)  ( 450 :    0)  ( 451 :    0)
  ( 452 :    0)  ( 453 :    0)  ( 454 :    0)  ( 455 :    0)
  ( 456 :    0)  ( 457 :    0)  ( 458 :    0)  ( 459 :    0)
  ( 460 :    0)  ( 461 :    0)  ( 462 :    0)  ( 463 :    0)
  ( 464 :    0)  ( 465 :    0)  ( 466 :    0)  ( 467 :    0)
  ( 468 :    0)  ( 469 :    0)  ( 470 :    0)  ( 471 :    0)
  ( 472 :    0)  ( 473 :    0)  ( 474 :    0)  ( 475 :    0)
  ( 476 :    0)  ( 477 :    0)  ( 478 :    0)  ( 479 :    0)
  ( 480 :    0)  ( 481 :    0)  ( 482 :    0)  ( 483 :    0)
  ( 484 :    0)  ( 485 :    0)  ( 486 :    0)  ( 487 :    0)
  ( 488 :    0)  ( 489 :    0)  ( 490 :    0)  ( 491 :    0)
  ( 492 :    0)  ( 493 :    0)  ( 494 :    0)  ( 495 :    0)
  ( 496 :    0)  ( 497 :    0)  ( 498 :    0)  ( 499 :    0)
  ( 500 :    0)  ( 501 :    0)  ( 502 :    0)  ( 503 :    0)
  ( 504 :    0)  ( 505 :    0)  ( 506 :    0)  ( 507 :    0)
  ( 508 :    0)  ( 509 :    0)  ( 510 :    0)  ( 511 :    0)
  ( 512 :    0)  ( 513 :    0)  ( 514 :    0)  ( 515 :    0)
  ( 516 :    0)  ( 517 :    0)  ( 518 :    0)  ( 519 :    0)
  ( 520 :    0)  ( 521 :    0)  ( 522 :    0)  ( 523 :    0)
  ( 524 :    0)  ( 525 :    0)  ( 526 :    0)  ( 527 :    0)
  ( 528 :    0)  ( 529 :    0)  ( 530 :    0)  ( 531 :    0)
  ( 532 :    0)  ( 533 :    0)  ( 534 :    0)  ( 535 :    0)
  ( 536 :    0)  ( 537 :    0)  ( 538 :    0)  ( 539 :    0)
  ( 540 :    0)  ( 541 :    0)  ( 542 :    0)  ( 543 :    0)
  ( 544 :    0)  ( 545 :    0)  ( 546 :    0)  ( 547 :    0)
  ( 548 :    0)  ( 549 :    0)  ( 550 :    0)  ( 551 :    0)
  ( 552 :    0)  ( 553 :    0)  ( 554 :    0)  ( 555 :    0)
  ( 556 :    0)  ( 557 :    0)  ( 558 :    0)  ( 559 :    0)
  ( 560 :    0)  ( 561 :    0)  ( 562 :    0)  ( 563 :    0)
  ( 564 :    0)  ( 565 :    0)  ( 566 :    0)  ( 567 :    0)
  ( 568 :    0)  ( 569 :    0)  ( 570 :    0)  ( 571 :    0)
  ( 572 :    0)  ( 573 :    0)  ( 574 :    0)  ( 575 :    0)
  ( 576 :    0)  ( 577 :    0)  ( 578 :    0)  ( 579 :    0)
  ( 580 :    0)  ( 581 :    0)  ( 582 :    0)  ( 583 :    0)
  ( 584 :    0)  ( 585 :    0)  ( 586 :    0)  ( 587 :    0)
  ( 588 :    0)  ( 589 :    0)  ( 590 :    0)  ( 591 :    0)
  ( 592 :    0)  ( 593 :    0)  ( 594 :    0)  ( 595 :    0)
  ( 596 :    0)  ( 597 :    0)  ( 598 :    0)  ( 599 :    0)
  ( 600 :    0)  ( 601 :    0)  ( 602 :    0)  ( 603 :    0)
  ( 604 :    0)  ( 605 :    0)  ( 606 :    0)  ( 607 :    0)
  ( 608 :    0)  ( 609 :    0)  ( 610 :    0)  ( 611 :    0)
  ( 612 :    0)  ( 613 :    0)  ( 614 :    0)  ( 615 :    0)
  ( 616 :    0)  ( 617 :    0)  ( 618 :    0)  ( 619 :    0)
  ( 620 :    0)  ( 621 :    0)  ( 622 :    0)  ( 623 :    0)
  ( 624 :    0)  ( 625 :    0)  ( 626 :    0)  ( 627 :    0)
  ( 628 :    0)  ( 629 :    0)  ( 630 :    0)  ( 631 :    0)
  ( 632 :    0)  ( 633 :    0)  ( 634 :    0)  ( 635 :    0)
  ( 636 :    0)  ( 637 :    0)  ( 638 :    0)  ( 639 :    0)
  ( 640 :    0)  ( 641 :    0)  ( 642 :    0)  ( 643 :    0)
  ( 644 :    0)  ( 645 :    0)  ( 646 :    0)  ( 647 :    0)
  ( 648 :    0)  ( 649 :    0)  ( 650 :    0)  ( 651 :    0)
  ( 652 :    0)  ( 653 :    0)  ( 654 :    0)  ( 655 :    0)
  ( 656 :    0)  ( 657 :    0)  ( 658 :    0)  ( 659 :    0)
  ( 660 :    0)  ( 661 :    0)  ( 662 :    0)  ( 663 :    0)
  ( 664 :    0)  ( 665 :    0)  ( 666 :    0)  ( 667 :    0)
  ( 668 :    0)  ( 669 :    0)  ( 670 :    0)  ( 671 :    0)
  ( 672 :    0)  ( 673 :    0)  ( 674 :    0)  ( 675 :    0)
  ( 676 :    0)  ( 677 :    0)  ( 678 :    0)  ( 679 :    0)
  ( 680 :    0)  ( 681 :    0)  ( 682 :    0)  ( 683 :    0)
  ( 684 :    0)  ( 685 :    0)  ( 686 :    0)  ( 687 :    0)
  ( 688 :    0)  ( 689 :    0)  ( 690 :    0)  ( 691 :    0)
  ( 692 :    0)  ( 693 :    0)  ( 694 :    0)  ( 695 :    0)
  ( 696 :    0)  ( 697 :    0)  ( 698 :    0)  ( 699 :    0)
  ( 700 :    0)  ( 701 :    0)  ( 702 :    0)  ( 703 :    0)
  ( 704 :    0)  ( 705 :    0)  ( 706 :    0)  ( 707 :    0)
  ( 708 :    0)  ( 709 :    0)  ( 710 :    0)  ( 711 :    0)
  ( 712 :    0)  ( 713 :    0)  ( 714 :    0)  ( 715 :    0)
  ( 716 :    0)  ( 717 :    0)  ( 718 :    0)  ( 719 :    0)
  ( 720 :    0)  ( 721 :    0)  ( 722 :    0)  ( 723 :    0)
  ( 724 :    0)  ( 725 :    0)  ( 726 :    0)  ( 727 :    0)
  ( 728 :    0)  ( 729 :    0)  ( 730 :    0)  ( 731 :    0)
  ( 732 :    0)  ( 733 :    0)  ( 734 :    0)  ( 735 :    0)
  ( 736 :    0)  ( 737 :    0)  ( 738 :    0)  ( 739 :    0)
  ( 740 :    0)  ( 741 :    0)  ( 742 :    0)  ( 743 :    0)
  ( 744 :    0)  ( 745 :    0)  ( 746 :    0)  ( 747 :    0)
  ( 748 :    0)  ( 749 :    0)  ( 750 :    0)  ( 751 :    0)
  ( 752 :    0)  ( 753 :    0)  ( 754 :    0)  ( 755 :    0)
  ( 756 :    0)  ( 757 :    0)  ( 758 :    0)  ( 759 :    0)
  ( 760 :    0)  ( 761 :    0)  ( 762 :    0)  ( 763 :    0)
  ( 764 :    0)  ( 765 :    0)  ( 766 :    0)  ( 767 :    0)
  ( 768 :    0)  ( 769 :    0)  ( 770 :    0)  ( 771 :    0)
  ( 772 :    0)  ( 773 :    0)  ( 774 :    0)  ( 775 :    0)
  ( 776 :    0)  ( 777 :    0)  ( 778 :    0)  ( 779 :    0)
  ( 780 :    0)  ( 781 :    0)  ( 782 :    0)  ( 783 :    0)
  ( 784 :    0)  ( 785 :    0)  ( 786 :    0)  ( 787 :    0)
  ( 788 :    0)  ( 789 :    0)  ( 790 :    0)  ( 791 :    0)
  ( 792 :    0)  ( 793 :    0)  ( 794 :    0)  ( 795 :    0)
  ( 796 :    0)  ( 797 :    0)  ( 798 :    0)  ( 799 :    0)
  ( 800 :    0)  ( 801 :    0)  ( 802 :    0)  ( 803 :    0)
  ( 804 :    0)  ( 805 :    0)  ( 806 :    0)  ( 807 :    0)
  ( 808 :    0)  ( 809 :    0)  ( 810 :    0)  ( 811 :    0)
  ( 812 :    0)  ( 813 :    0)  ( 814 :    0)  ( 815 :    0)
  ( 816 :    0)  ( 817 :    0)  ( 818 :    0)  ( 819 :    0)
  ( 820 :    0)  ( 821 :    0)  ( 822 :    0)  ( 823 :    0)
  ( 824 :    0)  ( 825 :    0)  ( 826 :    0)  ( 827 :    0)
  ( 828 :    0)  ( 829 :    0)  ( 830 :    0)  ( 831 :    0)
  ( 832 :    0)  ( 833 :    0)  ( 834 :    0)  ( 835 :    0)
  ( 836 :    0)  ( 837 :    0)  ( 838 :    0)  ( 839 :    0)
  ( 840 :    0)  ( 841 :    0)  ( 842 :    0)  ( 843 :    0)
  ( 844 :    0)  ( 845 :    0)  ( 846 :    0)  ( 847 :    0)
  ( 848 :    0)  ( 849 :    0)  ( 850 :    0)  ( 851 :    0)
  ( 852 :    0)  ( 853 :    0)  ( 854 :    0)  ( 855 :    0)
  ( 856 :    0)  ( 857 :    0)  ( 858 :    0)  ( 859 :    0)
  ( 860 :    0)  ( 861 :    0)  ( 862 :    0)  ( 863 :    0)
  ( 864 :    0)  ( 865 :    0)  ( 866 :    0)  ( 867 :    0)
  ( 868 :    0)  ( 869 :    0)  ( 870 :    0)  ( 871 :    0)
  ( 872 :    0)  ( 873 :    0)  ( 874 :    0)  ( 875 :    0)
  ( 876 :    0)  ( 877 :    0)  ( 878 :    0)  ( 879 :    0)
  ( 880 :    0)  ( 881 :    0)  ( 882 :    0)  ( 883 :    0)
  ( 884 :    0)  ( 885 :    0)  ( 886 :    0)  ( 887 :    0)
  ( 888 :    0)  ( 889 :    0)  ( 890 :    0)  ( 891 :    0)
  ( 892 :    0)  ( 893 :    0)  ( 894 :    0)  ( 895 :    0)
  ( 896 :    0)  ( 897 :    0)  ( 898 :    0)  ( 899 :    0)
  ( 900 :    0)  ( 901 :    0)  ( 902 :    0)  ( 903 :    0)
  ( 904 :    0)  ( 905 :    0)  ( 906 :    0)  ( 907 :    0)
  ( 908 :    0)  ( 909 :    0)  ( 910 :    0)  ( 911 :    0)
  ( 912 :    0)  ( 913 :    0)  ( 914 :    0)  ( 915 :    0)
  ( 916 :    0)  ( 917 :    0)  ( 918 :    0)  ( 919 :    0)
  ( 920 :    0)  ( 921 :    0)  ( 922 :    0)  ( 923 :    0)
  ( 924 :    0)  ( 925 :    0)  ( 926 :    0)  ( 927 :    0)
  ( 928 :    0)  ( 929 :    0)  ( 930 :    0)  ( 931 :    0)
  ( 932 :    0)  ( 933 :    0)  ( 934 :    0)  ( 935 :    0)
  ( 936 :    0)  ( 937 :    0)  ( 938 :    0)  ( 939 :    0)
  ( 940 :    0)  ( 941 :    0)  ( 942 :    0)  ( 943 :    0)
  ( 944 :    0)  ( 945 :    0)  ( 946 :    0)  ( 947 :    0)
  ( 948 :    0)  ( 949 :    0)  ( 950 :    0)  ( 951 :    0)
  ( 952 :    0)  ( 953 :    0)  ( 954 :    0)  ( 955 :    0)
  ( 956 :    0)  ( 957 :    0)  ( 958 :    0)  ( 959 :    0)
  ( 960 :    0)  ( 961 :    0)  ( 962 :    0)  ( 963 :    0)
  ( 964 :    0)  ( 965 :    0)  ( 966 :    0)  ( 967 :    0)
  ( 968 :    0)  ( 969 :    0)  ( 970 :    0)  ( 971 :    0)
  ( 972 :    0)  ( 973 :    0)  ( 974 :    0)  ( 975 :    0)
  ( 976 :    0)  ( 977 :    0)  ( 978 :    0)  ( 979 :    0)
  ( 980 :    0)  ( 981 :    0)  ( 982 :    0)  ( 983 :    0)
  ( 984 :    0)  ( 985 :    0)  ( 986 :    0)  ( 987 :    0)
  ( 988 :    0)  ( 989 :    0)  ( 990 :    0)  ( 991 :    0)
  ( 992 :    0)  ( 993 :    0)  ( 994 :    0)  ( 995 :    0)
  ( 996 :    0)  ( 997 :    0)  ( 998 :    0)  ( 999 :    0)
  (1000 :    0)  (1001 :    0)  (1002 :    0)  (1003 :    0)
  (1004 :    0)  (1005 :    0)  (1006 :    0)  (1007 :    0)
  (1008 :    0)  (1009 :    0)  (1010 :    0)  (1011 :    0)
  (1012 :    0)  (1013 :    0)  (1014 :    0)  (1015 :    0)
  (1016 :    0)  (1017 :    0)  (1018 :    0)  (1019 :    0)
  (1020 :    0)  (1021 :    0)  (1022 :    0)  (1023 :    0)

 GENERATE|  Preliminary Number of Bonds generated:                             0
 GENERATE|  Achieved consistency in connectivity generation.

 MD_PAR| Molecular dynamics protocol (MD input parameters)
 MD_PAR| Ensemble type                                                       NVE
 MD_PAR| Number of time steps                                                100
 MD_PAR| Time step [fs]                                                 1.000000
 MD_PAR| Temperature [K]                                              300.000000
 MD_PAR| Temperature tolerance [K]                                      0.000000
 MD_PAR| Print MD information every                                    1 step(s)
 MD_PAR| File type   Print frequency [steps]                          File names
 MD_PAR| Coordinates          1                              trying_md-pos-1.xyz
 MD_PAR| Velocities           1                              trying_md-vel-1.xyz
 MD_PAR| Energies             1                                 trying_md-1.ener
 MD_PAR| Dump                20                              trying_md-1.restart

 ROT| Rotational analysis information
 ROT| Principal axes and moments of inertia [a.u.]
 ROT|                           1                   2                   3
 ROT| Eigenvalues      3.43211078235E+10   3.59784036482E+10   4.11856192352E+10
 ROT|      x              0.705504535882     -0.395593451711     -0.588021403363
 ROT|      y              0.644892921513      0.702427986504      0.301177760729
 ROT|      z              0.293898740440     -0.591693117028      0.750681547415
 ROT| Number of rotovibrational vectors                                        6

 DOF| Calculation of degrees of freedom
 DOF| Number of atoms                                                        384
 DOF| Number of intramolecular constraints                                     0
 DOF| Number of intermolecular constraints                                     0
 DOF| Invariants (translations + rotations)                                    3
 DOF| Degrees of freedom                                                    1149

 DOF| Restraints information
 DOF| Number of intramolecular restraints                                      0
 DOF| Number of intermolecular restraints                                      0

 MD_VEL| Velocities initialization
 MD_VEL| Initial temperature [K]                                      285.524750
 MD_VEL| COM velocity             0.0000000000     0.0000000000    -0.0000000000
 mixed_energy_forces called
 got the force_env
 got the cp_subsys

 *** WARNING in force_env_methods.F:1153 :: ASSERTION (cond) failed at ***
 *** line   1154                    Error (0.185718E-11) in computing  ***
 *** numerical derivatives larger then(0.100000E-11) .                 ***


 *** WARNING in force_env_methods.F:1153 :: ASSERTION (cond) failed at ***
 *** line   1154                    Error (0.185718E-11) in computing  ***
 *** numerical derivatives larger then(0.100000E-11) .                 ***


 ENERGY| Total FORCE_EVAL ( MIXED ) energy [a.u.]:         -2210.627708006430112

 MD_INI| MD initialization
 MD_INI| Potential energy [hartree]                          -0.221062770801E+04
 MD_INI| Kinetic energy [hartree]                             0.519465289848E+00
 MD_INI| Temperature [K]                                              285.524750
 MD_INI| Cell volume [bohr^3]                                 2.592964050796E+04
 MD_INI| Cell volume [ang^3]                                  3.842376246864E+03
 MD_INI| Cell lengths [bohr]      2.95982135E+01  2.95982135E+01  2.95982135E+01
 MD_INI| Cell lengths [ang]       1.56627000E+01  1.56627000E+01  1.56627000E+01
 MD_INI| Cell angles [deg]        9.00000000E+01  9.00000000E+01  9.00000000E+01
 mixed_energy_forces called
 got the force_env
 got the cp_subsys

 *** WARNING in force_env_methods.F:1153 :: ASSERTION (cond) failed at ***
 *** line   1154                    Error (0.185718E-11) in computing  ***
 *** numerical derivatives larger then(0.100000E-11) .                 ***


 *** WARNING in force_env_methods.F:1153 :: ASSERTION (cond) failed at ***
 *** line   1154                    Error (0.185718E-11) in computing  ***
 *** numerical derivatives larger then(0.100000E-11) .                 ***


 ENERGY| Total FORCE_EVAL ( MIXED ) energy [a.u.]:         -2210.616348122839554

 MD_VEL| Centre of mass motion (COM)
 MD_VEL| VCOM [a.u.]              0.0000000000     0.0000000000    -0.0000000000

 MD| ***************************************************************************
 MD| Step number                                                               1
 MD| Time [fs]                                                          1.000000
 MD| Conserved quantity [hartree]                            -0.221010826472E+04
 MD| ---------------------------------------------------------------------------
 MD|                                          Instantaneous             Averages
 MD| CPU time per MD step [s]                      7.625905             7.625905
 MD| Energy drift per atom [K]          -0.180955785254E-01   0.000000000000E+00
 MD| Potential energy [hartree]         -0.221061634812E+04  -0.221061634812E+04
 MD| Kinetic energy [hartree]            0.508083401001E+00   0.508083401001E+00
 MD| Temperature [K]                             279.268681           279.268681
 MD| ***************************************************************************
 MD| Estimated peak process memory after this step [MiB]                     166
 mixed_energy_forces called
 got the force_env
 got the cp_subsys

 *** WARNING in force_env_methods.F:1153 :: ASSERTION (cond) failed at ***
 *** line   1154                    Error (0.185718E-11) in computing  ***
 *** numerical derivatives larger then(0.100000E-11) .                 ***


 *** WARNING in force_env_methods.F:1153 :: ASSERTION (cond) failed at ***
 *** line   1154                    Error (0.185718E-11) in computing  ***
 *** numerical derivatives larger then(0.100000E-11) .                 ***


 ENERGY| Total FORCE_EVAL ( MIXED ) energy [a.u.]:         -2210.603570366538861

 MD_VEL| Centre of mass motion (COM)
 MD_VEL| VCOM [a.u.]              0.0000000000     0.0000000000    -0.0000000000

 MD| ***************************************************************************
 MD| Step number                                                               2
 MD| Time [fs]                                                          2.000000
 MD| Conserved quantity [hartree]                            -0.221010624482E+04
 MD| ---------------------------------------------------------------------------
 MD|                                          Instantaneous             Averages
 MD| CPU time per MD step [s]                      2.120370             4.873137
 MD| Energy drift per atom [K]           0.164292583499E+01   0.821462917493E+00
 MD| Potential energy [hartree]         -0.221060357037E+04  -0.221060995924E+04
 MD| Kinetic energy [hartree]            0.497325541570E+00   0.502704471286E+00
 MD| Temperature [K]                             273.355610           276.312145
 MD| ***************************************************************************
 MD| Estimated peak process memory after this step [MiB]                     166
 mixed_energy_forces called
 got the force_env
 got the cp_subsys

 *** WARNING in force_env_methods.F:1153 :: ASSERTION (cond) failed at ***
 *** line   1154                    Error (0.185718E-11) in computing  ***
 *** numerical derivatives larger then(0.100000E-11) .                 ***


 *** WARNING in force_env_methods.F:1153 :: ASSERTION (cond) failed at ***
 *** line   1154                    Error (0.185718E-11) in computing  ***
 *** numerical derivatives larger then(0.100000E-11) .                 ***


 ENERGY| Total FORCE_EVAL ( MIXED ) energy [a.u.]:         -2210.616696287021114

 MD_VEL| Centre of mass motion (COM)
 MD_VEL| VCOM [a.u.]              0.0000000000     0.0000000000    -0.0000000000

 MD| ***************************************************************************
 MD| Step number                                                               3
 MD| Time [fs]                                                          3.000000
 MD| Conserved quantity [hartree]                            -0.221010801203E+04
 MD| ---------------------------------------------------------------------------
 MD|                                          Instantaneous             Averages
 MD| CPU time per MD step [s]                      1.142387             3.629554
 MD| Energy drift per atom [K]           0.189697849998E+00   0.610874561661E+00
 MD| Potential energy [hartree]         -0.221061669629E+04  -0.221061220493E+04
 MD| Kinetic energy [hartree]            0.508684253855E+00   0.504697732142E+00
 MD| Temperature [K]                             279.598940           277.407744
 MD| ***************************************************************************
 MD| Estimated peak process memory after this step [MiB]                     166
 mixed_energy_forces called
 got the force_env
 got the cp_subsys

 *** WARNING in force_env_methods.F:1153 :: ASSERTION (cond) failed at ***
 *** line   1154                    Error (0.185718E-11) in computing  ***
 *** numerical derivatives larger then(0.100000E-11) .                 ***


 *** WARNING in force_env_methods.F:1153 :: ASSERTION (cond) failed at ***
 *** line   1154                    Error (0.185718E-11) in computing  ***
 *** numerical derivatives larger then(0.100000E-11) .                 ***


 ENERGY| Total FORCE_EVAL ( MIXED ) energy [a.u.]:         -2210.634859894257715

 MD_VEL| Centre of mass motion (COM)
 MD_VEL| VCOM [a.u.]              0.0000000000     0.0000000000    -0.0000000000

 MD| ***************************************************************************
 MD| Step number                                                               4
 MD| Time [fs]                                                          4.000000
 MD| Conserved quantity [hartree]                            -0.221011017795E+04
 MD| ---------------------------------------------------------------------------
 MD|                                          Instantaneous             Averages
 MD| CPU time per MD step [s]                      1.823353             3.178004
 MD| Energy drift per atom [K]          -0.159140094060E+01   0.603056860954E-01
 MD| Potential energy [hartree]         -0.221063485989E+04  -0.221061786867E+04
 MD| Kinetic energy [hartree]            0.524681943276E+00   0.509693784926E+00
 MD| Temperature [K]                             288.392090           280.153830
 MD| ***************************************************************************
 MD| Estimated peak process memory after this step [MiB]                     166
 mixed_energy_forces called
 got the force_env
 got the cp_subsys

 *** WARNING in force_env_methods.F:1153 :: ASSERTION (cond) failed at ***
 *** line   1154                    Error (0.185718E-11) in computing  ***
 *** numerical derivatives larger then(0.100000E-11) .                 ***


 *** WARNING in force_env_methods.F:1153 :: ASSERTION (cond) failed at ***
 *** line   1154                    Error (0.185718E-11) in computing  ***
 *** numerical derivatives larger then(0.100000E-11) .                 ***


 ENERGY| Total FORCE_EVAL ( MIXED ) energy [a.u.]:         -2210.629350975878879

 MD_VEL| Centre of mass motion (COM)
 MD_VEL| VCOM [a.u.]              0.0000000000     0.0000000000    -0.0000000000

 MD| ***************************************************************************
 MD| Step number                                                               5
 MD| Time [fs]                                                          5.000000
 MD| Conserved quantity [hartree]                            -0.221010869088E+04
 MD| ---------------------------------------------------------------------------
 MD|                                          Instantaneous             Averages
 MD| CPU time per MD step [s]                      0.629309             2.668265
 MD| Energy drift per atom [K]          -0.368540552319E+00  -0.254635615874E-01
 MD| Potential energy [hartree]         -0.221062935098E+04  -0.221062016513E+04
 MD| Kinetic energy [hartree]            0.520660092945E+00   0.511887046529E+00
 MD| Temperature [K]                             286.181475           281.359359
 MD| ***************************************************************************
 MD| Estimated peak process memory after this step [MiB]                     166
 mixed_energy_forces called
 got the force_env
 got the cp_subsys

 *** WARNING in force_env_methods.F:1153 :: ASSERTION (cond) failed at ***
 *** line   1154                    Error (0.185718E-11) in computing  ***
 *** numerical derivatives larger then(0.100000E-11) .                 ***


 *** WARNING in force_env_methods.F:1153 :: ASSERTION (cond) failed at ***
 *** line   1154                    Error (0.185718E-11) in computing  ***
 *** numerical derivatives larger then(0.100000E-11) .                 ***


 ENERGY| Total FORCE_EVAL ( MIXED ) energy [a.u.]:         -2210.618279779330805

 MD_VEL| Centre of mass motion (COM)
 MD_VEL| VCOM [a.u.]              0.0000000000     0.0000000000    -0.0000000000

 MD| ***************************************************************************
 MD| Step number                                                               6
 MD| Time [fs]                                                          6.000000
 MD| Conserved quantity [hartree]                            -0.221010756147E+04
 MD| ---------------------------------------------------------------------------
 MD|                                          Instantaneous             Averages
 MD| CPU time per MD step [s]                      0.535315             2.312773
 MD| Energy drift per atom [K]           0.560212442679E+00   0.721491057903E-01
 MD| Potential energy [hartree]         -0.221061827978E+04  -0.221061985090E+04
 MD| Kinetic energy [hartree]            0.510718313063E+00   0.511692257618E+00
 MD| Temperature [K]                             280.716963           281.252293
 MD| ***************************************************************************
 MD| Estimated peak process memory after this step [MiB]                     166
 mixed_energy_forces called
 got the force_env
 got the cp_subsys

 *** WARNING in force_env_methods.F:1153 :: ASSERTION (cond) failed at ***
 *** line   1154                    Error (0.185718E-11) in computing  ***
 *** numerical derivatives larger then(0.100000E-11) .                 ***


 *** WARNING in force_env_methods.F:1153 :: ASSERTION (cond) failed at ***
 *** line   1154                    Error (0.185718E-11) in computing  ***
 *** numerical derivatives larger then(0.100000E-11) .                 ***


 ENERGY| Total FORCE_EVAL ( MIXED ) energy [a.u.]:         -2210.619066940471384

 MD_VEL| Centre of mass motion (COM)
 MD_VEL| VCOM [a.u.]              0.0000000000     0.0000000000    -0.0000000000

 MD| ***************************************************************************
 MD| Step number                                                               7
 MD| Time [fs]                                                          7.000000
 MD| Conserved quantity [hartree]                            -0.221010813279E+04
 MD| ---------------------------------------------------------------------------
 MD|                                          Instantaneous             Averages
 MD| CPU time per MD step [s]                      0.531571             2.058316
 MD| Energy drift per atom [K]           0.903938704058E-01   0.747555007353E-01
 MD| Potential energy [hartree]         -0.221061906694E+04  -0.221061973891E+04
 MD| Kinetic energy [hartree]            0.510934147997E+00   0.511583956244E+00
 MD| Temperature [K]                             280.835597           281.192765
 MD| ***************************************************************************
 MD| Estimated peak process memory after this step [MiB]                     167
 mixed_energy_forces called
 got the force_env
 got the cp_subsys

 *** WARNING in force_env_methods.F:1153 :: ASSERTION (cond) failed at ***
 *** line   1154                    Error (0.185718E-11) in computing  ***
 *** numerical derivatives larger then(0.100000E-11) .                 ***


 *** WARNING in force_env_methods.F:1153 :: ASSERTION (cond) failed at ***
 *** line   1154                    Error (0.185718E-11) in computing  ***
 *** numerical derivatives larger then(0.100000E-11) .                 ***


 ENERGY| Total FORCE_EVAL ( MIXED ) energy [a.u.]:         -2210.625424934142757

 MD_VEL| Centre of mass motion (COM)
 MD_VEL| VCOM [a.u.]              0.0000000000     0.0000000000    -0.0000000000

 MD| ***************************************************************************
 MD| Step number                                                               8
 MD| Time [fs]                                                          8.000000
 MD| Conserved quantity [hartree]                            -0.221010896673E+04
 MD| ---------------------------------------------------------------------------
 MD|                                          Instantaneous             Averages
 MD| CPU time per MD step [s]                      0.990322             1.924816
 MD| Energy drift per atom [K]          -0.595375907374E+00  -0.901092527833E-02
 MD| Potential energy [hartree]         -0.221062542493E+04  -0.221062044966E+04
 MD| Kinetic energy [hartree]            0.516458206466E+00   0.512193237522E+00
 MD| Temperature [K]                             283.871903           281.527658
 MD| ***************************************************************************
 MD| Estimated peak process memory after this step [MiB]                     167
 mixed_energy_forces called
 got the force_env
 got the cp_subsys

 *** WARNING in force_env_methods.F:1153 :: ASSERTION (cond) failed at ***
 *** line   1154                    Error (0.185718E-11) in computing  ***
 *** numerical derivatives larger then(0.100000E-11) .                 ***


 *** WARNING in force_env_methods.F:1153 :: ASSERTION (cond) failed at ***
 *** line   1154                    Error (0.185718E-11) in computing  ***
 *** numerical derivatives larger then(0.100000E-11) .                 ***


 ENERGY| Total FORCE_EVAL ( MIXED ) energy [a.u.]:         -2210.626411332829775

 MD_VEL| Centre of mass motion (COM)
 MD_VEL| VCOM [a.u.]              0.0000000000     0.0000000000    -0.0000000000

 MD| ***************************************************************************
 MD| Step number                                                               9
 MD| Time [fs]                                                          9.000000
 MD| Conserved quantity [hartree]                            -0.221010918893E+04
 MD| ---------------------------------------------------------------------------
 MD|                                          Instantaneous             Averages
 MD| CPU time per MD step [s]                      0.568478             1.774112
 MD| Energy drift per atom [K]          -0.778099303839E+00  -0.944651895629E-01
 MD| Potential energy [hartree]         -0.221062641133E+04  -0.221062111207E+04
 MD| Kinetic energy [hartree]            0.517222403071E+00   0.512752033694E+00
 MD| Temperature [K]                             284.291945           281.834801
 MD| ***************************************************************************
 MD| Estimated peak process memory after this step [MiB]                     167
 mixed_energy_forces called
 got the force_env
 got the cp_subsys

 *** WARNING in force_env_methods.F:1153 :: ASSERTION (cond) failed at ***
 *** line   1154                    Error (0.185718E-11) in computing  ***
 *** numerical derivatives larger then(0.100000E-11) .                 ***


 *** WARNING in force_env_methods.F:1153 :: ASSERTION (cond) failed at ***
 *** line   1154                    Error (0.185718E-11) in computing  ***
 *** numerical derivatives larger then(0.100000E-11) .                 ***


 ENERGY| Total FORCE_EVAL ( MIXED ) energy [a.u.]:         -2210.620488492696495

 MD_VEL| Centre of mass motion (COM)
 MD_VEL| VCOM [a.u.]              0.0000000000     0.0000000000    -0.0000000000

 MD| ***************************************************************************
 MD| Step number                                                              10
 MD| Time [fs]                                                         10.000000
 MD| Conserved quantity [hartree]                            -0.221010885083E+04
 MD| ---------------------------------------------------------------------------
 MD|                                          Instantaneous             Averages
 MD| CPU time per MD step [s]                      0.527233             1.649424
 MD| Energy drift per atom [K]          -0.500068304446E+00  -0.135025501051E+00
 MD| Potential energy [hartree]         -0.221062048849E+04  -0.221062104971E+04
 MD| Kinetic energy [hartree]            0.511637664507E+00   0.512640596775E+00
 MD| Temperature [K]                             281.222286           281.773549
 MD| ***************************************************************************
 MD| Estimated peak process memory after this step [MiB]                     167
 mixed_energy_forces called
 got the force_env
 got the cp_subsys

 *** WARNING in force_env_methods.F:1153 :: ASSERTION (cond) failed at ***
 *** line   1154                    Error (0.185718E-11) in computing  ***
 *** numerical derivatives larger then(0.100000E-11) .                 ***


 *** WARNING in force_env_methods.F:1153 :: ASSERTION (cond) failed at ***
 *** line   1154                    Error (0.185718E-11) in computing  ***
 *** numerical derivatives larger then(0.100000E-11) .                 ***


 ENERGY| Total FORCE_EVAL ( MIXED ) energy [a.u.]:         -2210.616061022036320

 MD_VEL| Centre of mass motion (COM)
 MD_VEL| VCOM [a.u.]              0.0000000000     0.0000000000    -0.0000000000

 MD| ***************************************************************************
 MD| Step number                                                              11
 MD| Time [fs]                                                         11.000000
 MD| Conserved quantity [hartree]                            -0.221010826315E+04
 MD| ---------------------------------------------------------------------------
 MD|                                          Instantaneous             Averages
 MD| CPU time per MD step [s]                      0.549731             1.549452
 MD| Energy drift per atom [K]          -0.168047359339E-01  -0.124278158768E+00
 MD| Potential energy [hartree]         -0.221061606102E+04  -0.221062059620E+04
 MD| Kinetic energy [hartree]            0.507797869936E+00   0.512200348881E+00
 MD| Temperature [K]                             279.111738           281.531566
 MD| ***************************************************************************
 MD| Estimated peak process memory after this step [MiB]                     167
 mixed_energy_forces called
 got the force_env
 got the cp_subsys

 *** WARNING in force_env_methods.F:1153 :: ASSERTION (cond) failed at ***
 *** line   1154                    Error (0.185718E-11) in computing  ***
 *** numerical derivatives larger then(0.100000E-11) .                 ***


 *** WARNING in force_env_methods.F:1153 :: ASSERTION (cond) failed at ***
 *** line   1154                    Error (0.185718E-11) in computing  ***
 *** numerical derivatives larger then(0.100000E-11) .                 ***


 ENERGY| Total FORCE_EVAL ( MIXED ) energy [a.u.]:         -2210.621932993402424

 MD_VEL| Centre of mass motion (COM)
 MD_VEL| VCOM [a.u.]              0.0000000000     0.0000000000    -0.0000000000

 MD| ***************************************************************************
 MD| Step number                                                              12
 MD| Time [fs]                                                         12.000000
 MD| Conserved quantity [hartree]                            -0.221010892533E+04
 MD| ---------------------------------------------------------------------------
 MD|                                          Instantaneous             Averages
 MD| CPU time per MD step [s]                      1.124744             1.514060
 MD| Energy drift per atom [K]          -0.561331881614E+00  -0.160699302338E+00
 MD| Potential energy [hartree]         -0.221062193299E+04  -0.221062070760E+04
 MD| Kinetic energy [hartree]            0.513007665205E+00   0.512267625241E+00
 MD| Temperature [K]                             281.975309           281.568545
 MD| ***************************************************************************
 MD| Estimated peak process memory after this step [MiB]                     167
 mixed_energy_forces called
 got the force_env
 got the cp_subsys

 *** WARNING in force_env_methods.F:1153 :: ASSERTION (cond) failed at ***
 *** line   1154                    Error (0.185718E-11) in computing  ***
 *** numerical derivatives larger then(0.100000E-11) .                 ***


 *** WARNING in force_env_methods.F:1153 :: ASSERTION (cond) failed at ***
 *** line   1154                    Error (0.185718E-11) in computing  ***
 *** numerical derivatives larger then(0.100000E-11) .                 ***


 ENERGY| Total FORCE_EVAL ( MIXED ) energy [a.u.]:         -2210.629988705093183

 MD_VEL| Centre of mass motion (COM)
 MD_VEL| VCOM [a.u.]              0.0000000000     0.0000000000    -0.0000000000

 MD| ***************************************************************************
 MD| Step number                                                              13
 MD| Time [fs]                                                         13.000000
 MD| Conserved quantity [hartree]                            -0.221010913348E+04
 MD| ---------------------------------------------------------------------------
 MD|                                          Instantaneous             Averages
 MD| CPU time per MD step [s]                      0.900255             1.466844
 MD| Energy drift per atom [K]          -0.732499678846E+00  -0.204683946685E+00
 MD| Potential energy [hartree]         -0.221062998871E+04  -0.221062142153E+04
 MD| Kinetic energy [hartree]            0.520855227082E+00   0.512928209998E+00
 MD| Temperature [K]                             286.288731           281.931636
 MD| ***************************************************************************
 MD| Estimated peak process memory after this step [MiB]                     167
 mixed_energy_forces called
 got the force_env
 got the cp_subsys

 *** WARNING in force_env_methods.F:1153 :: ASSERTION (cond) failed at ***
 *** line   1154                    Error (0.185718E-11) in computing  ***
 *** numerical derivatives larger then(0.100000E-11) .                 ***


 *** WARNING in force_env_methods.F:1153 :: ASSERTION (cond) failed at ***
 *** line   1154                    Error (0.185718E-11) in computing  ***
 *** numerical derivatives larger then(0.100000E-11) .                 ***


 ENERGY| Total FORCE_EVAL ( MIXED ) energy [a.u.]:         -2210.634357624373024

 MD_VEL| Centre of mass motion (COM)
 MD_VEL| VCOM [a.u.]              0.0000000000     0.0000000000    -0.0000000000

 MD| ***************************************************************************
 MD| Step number                                                              14
 MD| Time [fs]                                                         14.000000
 MD| Conserved quantity [hartree]                            -0.221010893998E+04
 MD| ---------------------------------------------------------------------------
 MD|                                          Instantaneous             Averages
 MD| CPU time per MD step [s]                      0.863428             1.423743
 MD| Energy drift per atom [K]          -0.573383174819E+00  -0.231019605838E+00
 MD| Potential energy [hartree]         -0.221063435762E+04  -0.221062234553E+04
 MD| Kinetic energy [hartree]            0.525417641115E+00   0.513820312221E+00
 MD| Temperature [K]                             288.796468           282.421981
 MD| ***************************************************************************
 MD| Estimated peak process memory after this step [MiB]                     167
 mixed_energy_forces called
 got the force_env
 got the cp_subsys

 *** WARNING in force_env_methods.F:1153 :: ASSERTION (cond) failed at ***
 *** line   1154                    Error (0.185718E-11) in computing  ***
 *** numerical derivatives larger then(0.100000E-11) .                 ***


 *** WARNING in force_env_methods.F:1153 :: ASSERTION (cond) failed at ***
 *** line   1154                    Error (0.185718E-11) in computing  ***
 *** numerical derivatives larger then(0.100000E-11) .                 ***


 ENERGY| Total FORCE_EVAL ( MIXED ) energy [a.u.]:         -2210.634704788863928

 MD_VEL| Centre of mass motion (COM)
 MD_VEL| VCOM [a.u.]              0.0000000000     0.0000000000    -0.0000000000

 MD| ***************************************************************************
 MD| Step number                                                              15
 MD| Time [fs]                                                         15.000000
 MD| Conserved quantity [hartree]                            -0.221010875986E+04
 MD| ---------------------------------------------------------------------------
 MD|                                          Instantaneous             Averages
 MD| CPU time per MD step [s]                      0.737121             1.377968
 MD| Energy drift per atom [K]          -0.425258741853E+00  -0.243968881572E+00
 MD| Potential energy [hartree]         -0.221063470479E+04  -0.221062316948E+04
 MD| Kinetic energy [hartree]            0.525944933373E+00   0.514628620297E+00
 MD| Temperature [K]                             289.086294           282.866269
 MD| ***************************************************************************
 MD| Estimated peak process memory after this step [MiB]                     167
 mixed_energy_forces called
 got the force_env
 got the cp_subsys

 *** WARNING in force_env_methods.F:1153 :: ASSERTION (cond) failed at ***
 *** line   1154                    Error (0.185718E-11) in computing  ***
 *** numerical derivatives larger then(0.100000E-11) .                 ***


 *** WARNING in force_env_methods.F:1153 :: ASSERTION (cond) failed at ***
 *** line   1154                    Error (0.185718E-11) in computing  ***
 *** numerical derivatives larger then(0.100000E-11) .                 ***


 ENERGY| Total FORCE_EVAL ( MIXED ) energy [a.u.]:         -2210.631778382491575

 MD_VEL| Centre of mass motion (COM)
 MD_VEL| VCOM [a.u.]              0.0000000000     0.0000000000    -0.0000000000

 MD| ***************************************************************************
 MD| Step number                                                              16
 MD| Time [fs]                                                         16.000000
 MD| Conserved quantity [hartree]                            -0.221010823683E+04
 MD| ---------------------------------------------------------------------------
 MD|                                          Instantaneous             Averages
 MD| CPU time per MD step [s]                      0.524418             1.324621
 MD| Energy drift per atom [K]           0.484097037894E-02  -0.228418265825E+00
 MD| Potential energy [hartree]         -0.221063177838E+04  -0.221062370754E+04
 MD| Kinetic energy [hartree]            0.523541552806E+00   0.515185678579E+00
 MD| Temperature [K]                             287.765273           283.172456
 MD| ***************************************************************************
 MD| Estimated peak process memory after this step [MiB]                     167
 mixed_energy_forces called
 got the force_env
 got the cp_subsys

 *** WARNING in force_env_methods.F:1153 :: ASSERTION (cond) failed at ***
 *** line   1154                    Error (0.185718E-11) in computing  ***
 *** numerical derivatives larger then(0.100000E-11) .                 ***


 *** WARNING in force_env_methods.F:1153 :: ASSERTION (cond) failed at ***
 *** line   1154                    Error (0.185718E-11) in computing  ***
 *** numerical derivatives larger then(0.100000E-11) .                 ***


 ENERGY| Total FORCE_EVAL ( MIXED ) energy [a.u.]:         -2210.629386889455873

 MD_VEL| Centre of mass motion (COM)
 MD_VEL| VCOM [a.u.]              0.0000000000     0.0000000000    -0.0000000000

 MD| ***************************************************************************
 MD| Step number                                                              17
 MD| Time [fs]                                                         17.000000
 MD| Conserved quantity [hartree]                            -0.221010846474E+04
 MD| ---------------------------------------------------------------------------
 MD|                                          Instantaneous             Averages
 MD| CPU time per MD step [s]                      0.978309             1.304250
 MD| Energy drift per atom [K]          -0.182573188426E+00  -0.225721496566E+00
 MD| Potential energy [hartree]         -0.221062938689E+04  -0.221062404162E+04
 MD| Kinetic energy [hartree]            0.520922153453E+00   0.515523118278E+00
 MD| Temperature [K]                             286.325517           283.357931
 MD| ***************************************************************************
 MD| Estimated peak process memory after this step [MiB]                     167
 mixed_energy_forces called
 got the force_env
 got the cp_subsys

 *** WARNING in force_env_methods.F:1153 :: ASSERTION (cond) failed at ***
 *** line   1154                    Error (0.185718E-11) in computing  ***
 *** numerical derivatives larger then(0.100000E-11) .                 ***


 *** WARNING in force_env_methods.F:1153 :: ASSERTION (cond) failed at ***
 *** line   1154                    Error (0.185718E-11) in computing  ***
 *** numerical derivatives larger then(0.100000E-11) .                 ***


 ENERGY| Total FORCE_EVAL ( MIXED ) energy [a.u.]:         -2210.623662718336163

 MD_VEL| Centre of mass motion (COM)
 MD_VEL| VCOM [a.u.]              0.0000000000     0.0000000000    -0.0000000000

 MD| ***************************************************************************
 MD| Step number                                                              18
 MD| Time [fs]                                                         18.000000
 MD| Conserved quantity [hartree]                            -0.221010859480E+04
 MD| ---------------------------------------------------------------------------
 MD|                                          Instantaneous             Averages
 MD| CPU time per MD step [s]                      0.602126             1.265243
 MD| Energy drift per atom [K]          -0.289526821603E+00  -0.229266236846E+00
 MD| Potential energy [hartree]         -0.221062366272E+04  -0.221062402057E+04
 MD| Kinetic energy [hartree]            0.515067920609E+00   0.515497829518E+00
 MD| Temperature [K]                             283.107731           283.344031
 MD| ***************************************************************************
 MD| Estimated peak process memory after this step [MiB]                     167
 mixed_energy_forces called
 got the force_env
 got the cp_subsys

 *** WARNING in force_env_methods.F:1153 :: ASSERTION (cond) failed at ***
 *** line   1154                    Error (0.185718E-11) in computing  ***
 *** numerical derivatives larger then(0.100000E-11) .                 ***


 *** WARNING in force_env_methods.F:1153 :: ASSERTION (cond) failed at ***
 *** line   1154                    Error (0.185718E-11) in computing  ***
 *** numerical derivatives larger then(0.100000E-11) .                 ***


 ENERGY| Total FORCE_EVAL ( MIXED ) energy [a.u.]:         -2210.613869743312989

 MD_VEL| Centre of mass motion (COM)
 MD_VEL| VCOM [a.u.]              0.0000000000     0.0000000000    -0.0000000000

 MD| ***************************************************************************
 MD| Step number                                                              19
 MD| Time [fs]                                                         19.000000
 MD| Conserved quantity [hartree]                            -0.221010783998E+04
 MD| ---------------------------------------------------------------------------
 MD|                                          Instantaneous             Averages
 MD| CPU time per MD step [s]                      1.889715             1.298110
 MD| Energy drift per atom [K]           0.331181926646E+00  -0.199768965083E+00
 MD| Potential energy [hartree]         -0.221061386974E+04  -0.221062348632E+04
 MD| Kinetic energy [hartree]            0.506029762861E+00   0.514999510221E+00
 MD| Temperature [K]                             278.139896           283.070129
 MD| ***************************************************************************
 MD| Estimated peak process memory after this step [MiB]                     167
 mixed_energy_forces called
 got the force_env
 got the cp_subsys

 *** WARNING in force_env_methods.F:1153 :: ASSERTION (cond) failed at ***
 *** line   1154                    Error (0.185718E-11) in computing  ***
 *** numerical derivatives larger then(0.100000E-11) .                 ***


 *** WARNING in force_env_methods.F:1153 :: ASSERTION (cond) failed at ***
 *** line   1154                    Error (0.185718E-11) in computing  ***
 *** numerical derivatives larger then(0.100000E-11) .                 ***


 ENERGY| Total FORCE_EVAL ( MIXED ) energy [a.u.]:         -2210.612883653648169

 MD_VEL| Centre of mass motion (COM)
 MD_VEL| VCOM [a.u.]              0.0000000000     0.0000000000    -0.0000000000

 MD| ***************************************************************************
 MD| Step number                                                              20
 MD| Time [fs]                                                         20.000000
 MD| Conserved quantity [hartree]                            -0.221010779442E+04
 MD| ---------------------------------------------------------------------------
 MD|                                          Instantaneous             Averages
 MD| CPU time per MD step [s]                      0.600456             1.263227
 MD| Energy drift per atom [K]           0.368649376926E+00  -0.171348047983E+00
 MD| Potential energy [hartree]         -0.221061288365E+04  -0.221062295618E+04
 MD| Kinetic energy [hartree]            0.505089235755E+00   0.514503996497E+00
 MD| Temperature [K]                             277.622934           282.797769
 MD| ***************************************************************************
 MD| Estimated peak process memory after this step [MiB]                     167
 mixed_energy_forces called
 got the force_env
 got the cp_subsys

 *** WARNING in force_env_methods.F:1153 :: ASSERTION (cond) failed at ***
 *** line   1154                    Error (0.185718E-11) in computing  ***
 *** numerical derivatives larger then(0.100000E-11) .                 ***


 *** WARNING in force_env_methods.F:1153 :: ASSERTION (cond) failed at ***
 *** line   1154                    Error (0.185718E-11) in computing  ***
 *** numerical derivatives larger then(0.100000E-11) .                 ***


 ENERGY| Total FORCE_EVAL ( MIXED ) energy [a.u.]:         -2210.620985770998232

 MD_VEL| Centre of mass motion (COM)
 MD_VEL| VCOM [a.u.]              0.0000000000     0.0000000000    -0.0000000000

 MD| ***************************************************************************
 MD| Step number                                                              21
 MD| Time [fs]                                                         21.000000
 MD| Conserved quantity [hartree]                            -0.221011004305E+04
 MD| ---------------------------------------------------------------------------
 MD|                                          Instantaneous             Averages
 MD| CPU time per MD step [s]                      0.574944             1.230452
 MD| Energy drift per atom [K]          -0.148047045892E+01  -0.233687210409E+00
 MD| Potential energy [hartree]         -0.221062098577E+04  -0.221062286235E+04
 MD| Kinetic energy [hartree]            0.510942717816E+00   0.514334411798E+00
 MD| Temperature [K]                             280.840308           282.704557
 MD| ***************************************************************************
 MD| Estimated peak process memory after this step [MiB]                     167
 mixed_energy_forces called
 got the force_env
 got the cp_subsys

 *** WARNING in force_env_methods.F:1153 :: ASSERTION (cond) failed at ***
 *** line   1154                    Error (0.185718E-11) in computing  ***
 *** numerical derivatives larger then(0.100000E-11) .                 ***


 *** WARNING in force_env_methods.F:1153 :: ASSERTION (cond) failed at ***
 *** line   1154                    Error (0.185718E-11) in computing  ***
 *** numerical derivatives larger then(0.100000E-11) .                 ***


 ENERGY| Total FORCE_EVAL ( MIXED ) energy [a.u.]:         -2210.613021563548500

 MD_VEL| Centre of mass motion (COM)
 MD_VEL| VCOM [a.u.]              0.0000000000     0.0000000000    -0.0000000000

 MD| ***************************************************************************
 MD| Step number                                                              22
 MD| Time [fs]                                                         22.000000
 MD| Conserved quantity [hartree]                            -0.221010922490E+04
 MD| ---------------------------------------------------------------------------
 MD|                                          Instantaneous             Averages
 MD| CPU time per MD step [s]                      0.540527             1.199092
 MD| Energy drift per atom [K]          -0.807676652195E+00  -0.259777639581E+00
 MD| Potential energy [hartree]         -0.221061302156E+04  -0.221062241504E+04
 MD| Kinetic energy [hartree]            0.503796666046E+00   0.513855423355E+00
 MD| Temperature [K]                             276.912471           282.441280
 MD| ***************************************************************************
 MD| Estimated peak process memory after this step [MiB]                     167
 mixed_energy_forces called
 got the force_env
 got the cp_subsys

 *** WARNING in force_env_methods.F:1153 :: ASSERTION (cond) failed at ***
 *** line   1154                    Error (0.185718E-11) in computing  ***
 *** numerical derivatives larger then(0.100000E-11) .                 ***


 *** WARNING in force_env_methods.F:1153 :: ASSERTION (cond) failed at ***
 *** line   1154                    Error (0.185718E-11) in computing  ***
 *** numerical derivatives larger then(0.100000E-11) .                 ***


 ENERGY| Total FORCE_EVAL ( MIXED ) energy [a.u.]:         -2210.600343969086225

 MD_VEL| Centre of mass motion (COM)
 MD_VEL| VCOM [a.u.]              0.0000000000     0.0000000000    -0.0000000000

 MD| ***************************************************************************
 MD| Step number                                                              23
 MD| Time [fs]                                                         23.000000
 MD| Conserved quantity [hartree]                            -0.221010777330E+04
 MD| ---------------------------------------------------------------------------
 MD|                                          Instantaneous             Averages
 MD| CPU time per MD step [s]                      0.536899             1.170301
 MD| Energy drift per atom [K]           0.386016372586E+00  -0.231699639052E+00
 MD| Potential energy [hartree]         -0.221060034397E+04  -0.221062145543E+04
 MD| Kinetic energy [hartree]            0.492570670452E+00   0.512929999316E+00
 MD| Temperature [K]                             270.742089           281.932620
 MD| ***************************************************************************
 MD| Estimated peak process memory after this step [MiB]                     167
 mixed_energy_forces called
 got the force_env
 got the cp_subsys

 *** WARNING in force_env_methods.F:1153 :: ASSERTION (cond) failed at ***
 *** line   1154                    Error (0.185718E-11) in computing  ***
 *** numerical derivatives larger then(0.100000E-11) .                 ***


 *** WARNING in force_env_methods.F:1153 :: ASSERTION (cond) failed at ***
 *** line   1154                    Error (0.185718E-11) in computing  ***
 *** numerical derivatives larger then(0.100000E-11) .                 ***


 ENERGY| Total FORCE_EVAL ( MIXED ) energy [a.u.]:         -2210.603954234758930

 MD_VEL| Centre of mass motion (COM)
 MD_VEL| VCOM [a.u.]              0.0000000000     0.0000000000    -0.0000000000

 MD| ***************************************************************************
 MD| Step number                                                              24
 MD| Time [fs]                                                         24.000000
 MD| Conserved quantity [hartree]                            -0.221010885312E+04
 MD| ---------------------------------------------------------------------------
 MD|                                          Instantaneous             Averages
 MD| CPU time per MD step [s]                      0.542320             1.144135
 MD| Energy drift per atom [K]          -0.501952542032E+00  -0.242960176676E+00
 MD| Potential energy [hartree]         -0.221060395423E+04  -0.221062072622E+04
 MD| Kinetic energy [hartree]            0.495101115228E+00   0.512187129145E+00
 MD| Temperature [K]                             272.132951           281.524300
 MD| ***************************************************************************
 MD| Estimated peak process memory after this step [MiB]                     167
 mixed_energy_forces called
 got the force_env
 got the cp_subsys

 *** WARNING in force_env_methods.F:1153 :: ASSERTION (cond) failed at ***
 *** line   1154                    Error (0.185718E-11) in computing  ***
 *** numerical derivatives larger then(0.100000E-11) .                 ***


 *** WARNING in force_env_methods.F:1153 :: ASSERTION (cond) failed at ***
 *** line   1154                    Error (0.185718E-11) in computing  ***
 *** numerical derivatives larger then(0.100000E-11) .                 ***


 ENERGY| Total FORCE_EVAL ( MIXED ) energy [a.u.]:         -2210.612419915761620

 MD_VEL| Centre of mass motion (COM)
 MD_VEL| VCOM [a.u.]              0.0000000000     0.0000000000    -0.0000000000

 MD| ***************************************************************************
 MD| Step number                                                              25
 MD| Time [fs]                                                         25.000000
 MD| Conserved quantity [hartree]                            -0.221010941019E+04
 MD| ---------------------------------------------------------------------------
 MD|                                          Instantaneous             Averages
 MD| CPU time per MD step [s]                      1.195552             1.146192
 MD| Energy drift per atom [K]          -0.960047642273E+00  -0.271643675300E+00
 MD| Potential energy [hartree]         -0.221061241992E+04  -0.221062039396E+04
 MD| Kinetic energy [hartree]            0.503009726436E+00   0.511820033037E+00
 MD| Temperature [K]                             276.479929           281.322525
 MD| ***************************************************************************
 MD| Estimated peak process memory after this step [MiB]                     167
 mixed_energy_forces called
 got the force_env
 got the cp_subsys

 *** WARNING in force_env_methods.F:1153 :: ASSERTION (cond) failed at ***
 *** line   1154                    Error (0.185718E-11) in computing  ***
 *** numerical derivatives larger then(0.100000E-11) .                 ***


 *** WARNING in force_env_methods.F:1153 :: ASSERTION (cond) failed at ***
 *** line   1154                    Error (0.185718E-11) in computing  ***
 *** numerical derivatives larger then(0.100000E-11) .                 ***


 ENERGY| Total FORCE_EVAL ( MIXED ) energy [a.u.]:         -2210.615645763149587

 MD_VEL| Centre of mass motion (COM)
 MD_VEL| VCOM [a.u.]              0.0000000000     0.0000000000    -0.0000000000

 MD| ***************************************************************************
 MD| Step number                                                              26
 MD| Time [fs]                                                         26.000000
 MD| Conserved quantity [hartree]                            -0.221010959490E+04
 MD| ---------------------------------------------------------------------------
 MD|                                          Instantaneous             Averages
 MD| CPU time per MD step [s]                      0.542116             1.122958
 MD| Energy drift per atom [K]          -0.111193707976E+01  -0.303962652394E+00
 MD| Potential energy [hartree]         -0.221061564576E+04  -0.221062021134E+04
 MD| Kinetic energy [hartree]            0.506050867596E+00   0.511598142058E+00
 MD| Temperature [K]                             278.151496           281.200563
 MD| ***************************************************************************
 MD| Estimated peak process memory after this step [MiB]                     167
 mixed_energy_forces called
 got the force_env
 got the cp_subsys

 *** WARNING in force_env_methods.F:1153 :: ASSERTION (cond) failed at ***
 *** line   1154                    Error (0.185718E-11) in computing  ***
 *** numerical derivatives larger then(0.100000E-11) .                 ***


 *** WARNING in force_env_methods.F:1153 :: ASSERTION (cond) failed at ***
 *** line   1154                    Error (0.185718E-11) in computing  ***
 *** numerical derivatives larger then(0.100000E-11) .                 ***


 ENERGY| Total FORCE_EVAL ( MIXED ) energy [a.u.]:         -2210.609325824767893

 MD_VEL| Centre of mass motion (COM)
 MD_VEL| VCOM [a.u.]              0.0000000000     0.0000000000    -0.0000000000

 MD| ***************************************************************************
 MD| Step number                                                              27
 MD| Time [fs]                                                         27.000000
 MD| Conserved quantity [hartree]                            -0.221010963378E+04
 MD| ---------------------------------------------------------------------------
 MD|                                          Instantaneous             Averages
 MD| CPU time per MD step [s]                      0.751367             1.109195
 MD| Energy drift per atom [K]          -0.114391425207E+01  -0.335071970901E+00
 MD| Potential energy [hartree]         -0.221060932582E+04  -0.221061980817E+04
 MD| Kinetic energy [hartree]            0.499692043147E+00   0.511157175432E+00
 MD| Temperature [K]                             274.656360           280.958185
 MD| ***************************************************************************
 MD| Estimated peak process memory after this step [MiB]                     167
 mixed_energy_forces called
 got the force_env
 got the cp_subsys

 *** WARNING in force_env_methods.F:1153 :: ASSERTION (cond) failed at ***
 *** line   1154                    Error (0.185718E-11) in computing  ***
 *** numerical derivatives larger then(0.100000E-11) .                 ***


 *** WARNING in force_env_methods.F:1153 :: ASSERTION (cond) failed at ***
 *** line   1154                    Error (0.185718E-11) in computing  ***
 *** numerical derivatives larger then(0.100000E-11) .                 ***


 ENERGY| Total FORCE_EVAL ( MIXED ) energy [a.u.]:         -2210.595573632073410

 MD_VEL| Centre of mass motion (COM)
 MD_VEL| VCOM [a.u.]              0.0000000000     0.0000000000    -0.0000000000

 MD| ***************************************************************************
 MD| Step number                                                              28
 MD| Time [fs]                                                         28.000000
 MD| Conserved quantity [hartree]                            -0.221010789687E+04
 MD| ---------------------------------------------------------------------------
 MD|                                          Instantaneous             Averages
 MD| CPU time per MD step [s]                      0.533802             1.088646
 MD| Energy drift per atom [K]           0.284400866287E+00  -0.312947941001E+00
 MD| Potential energy [hartree]         -0.221059557363E+04  -0.221061894265E+04
 MD| Kinetic energy [hartree]            0.487676763182E+00   0.510318589280E+00
 MD| Temperature [K]                             268.052147           280.497255
 MD| ***************************************************************************
 MD| Estimated peak process memory after this step [MiB]                     167
 mixed_energy_forces called
 got the force_env
 got the cp_subsys

 *** WARNING in force_env_methods.F:1153 :: ASSERTION (cond) failed at ***
 *** line   1154                    Error (0.185718E-11) in computing  ***
 *** numerical derivatives larger then(0.100000E-11) .                 ***


 *** WARNING in force_env_methods.F:1153 :: ASSERTION (cond) failed at ***
 *** line   1154                    Error (0.185718E-11) in computing  ***
 *** numerical derivatives larger then(0.100000E-11) .                 ***


 ENERGY| Total FORCE_EVAL ( MIXED ) energy [a.u.]:         -2210.597889874212342

 MD_VEL| Centre of mass motion (COM)
 MD_VEL| VCOM [a.u.]              0.0000000000     0.0000000000    -0.0000000000

 MD| ***************************************************************************
 MD| Step number                                                              29
 MD| Time [fs]                                                         29.000000
 MD| Conserved quantity [hartree]                            -0.221010777371E+04
 MD| ---------------------------------------------------------------------------
 MD|                                          Instantaneous             Averages
 MD| CPU time per MD step [s]                      0.544421             1.069879
 MD| Energy drift per atom [K]           0.385678261741E+00  -0.288857382286E+00
 MD| Potential energy [hartree]         -0.221059788987E+04  -0.221061821670E+04
 MD| Kinetic energy [hartree]            0.490116164416E+00   0.509621953940E+00
 MD| Temperature [K]                             269.392966           280.114348
 MD| ***************************************************************************
 MD| Estimated peak process memory after this step [MiB]                     167
 mixed_energy_forces called
 got the force_env
 got the cp_subsys

 *** WARNING in force_env_methods.F:1153 :: ASSERTION (cond) failed at ***
 *** line   1154                    Error (0.185718E-11) in computing  ***
 *** numerical derivatives larger then(0.100000E-11) .                 ***


 *** WARNING in force_env_methods.F:1153 :: ASSERTION (cond) failed at ***
 *** line   1154                    Error (0.185718E-11) in computing  ***
 *** numerical derivatives larger then(0.100000E-11) .                 ***


 ENERGY| Total FORCE_EVAL ( MIXED ) energy [a.u.]:         -2210.616599854246488

 MD_VEL| Centre of mass motion (COM)
 MD_VEL| VCOM [a.u.]              0.0000000000     0.0000000000    -0.0000000000

 MD| ***************************************************************************
 MD| Step number                                                              30
 MD| Time [fs]                                                         30.000000
 MD| Conserved quantity [hartree]                            -0.221011017102E+04
 MD| ---------------------------------------------------------------------------
 MD|                                          Instantaneous             Averages
 MD| CPU time per MD step [s]                      0.574347             1.053361
 MD| Energy drift per atom [K]          -0.158569924608E+01  -0.332085444412E+00
 MD| Potential energy [hartree]         -0.221061659985E+04  -0.221061816280E+04
 MD| Kinetic energy [hartree]            0.506428836851E+00   0.509515516704E+00
 MD| Temperature [K]                             278.359247           280.055845
 MD| ***************************************************************************
 MD| Estimated peak process memory after this step [MiB]                     167
 mixed_energy_forces called
 got the force_env
 got the cp_subsys

 *** WARNING in force_env_methods.F:1153 :: ASSERTION (cond) failed at ***
 *** line   1154                    Error (0.185718E-11) in computing  ***
 *** numerical derivatives larger then(0.100000E-11) .                 ***


 *** WARNING in force_env_methods.F:1153 :: ASSERTION (cond) failed at ***
 *** line   1154                    Error (0.185718E-11) in computing  ***
 *** numerical derivatives larger then(0.100000E-11) .                 ***


 ENERGY| Total FORCE_EVAL ( MIXED ) energy [a.u.]:         -2210.620583447739591

 MD_VEL| Centre of mass motion (COM)
 MD_VEL| VCOM [a.u.]              0.0000000000     0.0000000000    -0.0000000000

 MD| ***************************************************************************
[...]
 MD| Energy drift per atom [K]           0.501192093942E+00   0.246147310145E+00
 MD| Potential energy [hartree]         -0.221064496521E+04  -0.221062400754E+04
 MD| Kinetic energy [hartree]            0.537331972353E+00   0.516063917126E+00
 MD| Temperature [K]                             295.345195           283.655181
 MD| ***************************************************************************
 MD| Estimated peak process memory after this step [MiB]                     168
 mixed_energy_forces called
 got the force_env
 got the cp_subsys

 *** WARNING in force_env_methods.F:1153 :: ASSERTION (cond) failed at ***
 *** line   1154                    Error (0.185718E-11) in computing  ***
 *** numerical derivatives larger then(0.100000E-11) .                 ***


 *** WARNING in force_env_methods.F:1153 :: ASSERTION (cond) failed at ***
 *** line   1154                    Error (0.185718E-11) in computing  ***
 *** numerical derivatives larger then(0.100000E-11) .                 ***


 ENERGY| Total FORCE_EVAL ( MIXED ) energy [a.u.]:         -2210.637035403933169

 MD_VEL| Centre of mass motion (COM)
 MD_VEL| VCOM [a.u.]              0.0000000000     0.0000000000    -0.0000000000

 MD| ***************************************************************************
 MD| Step number                                                              94
 MD| Time [fs]                                                         94.000000
 MD| Conserved quantity [hartree]                            -0.221010714827E+04
 MD| ---------------------------------------------------------------------------
 MD|                                          Instantaneous             Averages
 MD| CPU time per MD step [s]                      0.560645             0.834806
 MD| Energy drift per atom [K]           0.899996335830E+00   0.253103150844E+00
 MD| Potential energy [hartree]         -0.221063703540E+04  -0.221062414614E+04
 MD| Kinetic energy [hartree]            0.529887134278E+00   0.516210972627E+00
 MD| Temperature [K]                             291.253130           283.736011
 MD| ***************************************************************************
 MD| Estimated peak process memory after this step [MiB]                     168
 mixed_energy_forces called
 got the force_env
 got the cp_subsys

 *** WARNING in force_env_methods.F:1153 :: ASSERTION (cond) failed at ***
 *** line   1154                    Error (0.185718E-11) in computing  ***
 *** numerical derivatives larger then(0.100000E-11) .                 ***


 *** WARNING in force_env_methods.F:1153 :: ASSERTION (cond) failed at ***
 *** line   1154                    Error (0.185718E-11) in computing  ***
 *** numerical derivatives larger then(0.100000E-11) .                 ***


 ENERGY| Total FORCE_EVAL ( MIXED ) energy [a.u.]:         -2210.610277845114524

 MD_VEL| Centre of mass motion (COM)
 MD_VEL| VCOM [a.u.]              0.0000000000     0.0000000000    -0.0000000000

 MD| ***************************************************************************
 MD| Step number                                                              95
 MD| Time [fs]                                                         95.000000
 MD| Conserved quantity [hartree]                            -0.221010464999E+04
 MD| ---------------------------------------------------------------------------
 MD|                                          Instantaneous             Averages
 MD| CPU time per MD step [s]                      0.518580             0.831478
 MD| Energy drift per atom [K]           0.295440880988E+01   0.281537947255E+00
 MD| Potential energy [hartree]         -0.221061027785E+04  -0.221062400015E+04
 MD| Kinetic energy [hartree]            0.505627858318E+00   0.516099571424E+00
 MD| Temperature [K]                             277.918989           283.674779
 MD| ***************************************************************************
 MD| Estimated peak process memory after this step [MiB]                     168
 mixed_energy_forces called
 got the force_env
 got the cp_subsys

 *** WARNING in force_env_methods.F:1153 :: ASSERTION (cond) failed at ***
 *** line   1154                    Error (0.185718E-11) in computing  ***
 *** numerical derivatives larger then(0.100000E-11) .                 ***


 *** WARNING in force_env_methods.F:1153 :: ASSERTION (cond) failed at ***
 *** line   1154                    Error (0.185718E-11) in computing  ***
 *** numerical derivatives larger then(0.100000E-11) .                 ***


 ENERGY| Total FORCE_EVAL ( MIXED ) energy [a.u.]:         -2210.597578186874671

 MD_VEL| Centre of mass motion (COM)
 MD_VEL| VCOM [a.u.]              0.0000000000     0.0000000000    -0.0000000000

 MD| ***************************************************************************
 MD| Step number                                                              96
 MD| Time [fs]                                                         96.000000
 MD| Conserved quantity [hartree]                            -0.221010351922E+04
 MD| ---------------------------------------------------------------------------
 MD|                                          Instantaneous             Averages
 MD| CPU time per MD step [s]                      0.689057             0.829994
 MD| Energy drift per atom [K]           0.388427563415E+01   0.319066464827E+00
 MD| Potential energy [hartree]         -0.221059757819E+04  -0.221062372492E+04
 MD| Kinetic energy [hartree]            0.494058971224E+00   0.515869981839E+00
 MD| Temperature [K]                             271.560135           283.548585
 MD| ***************************************************************************
 MD| Estimated peak process memory after this step [MiB]                     168
 mixed_energy_forces called
 got the force_env
 got the cp_subsys

 *** WARNING in force_env_methods.F:1153 :: ASSERTION (cond) failed at ***
 *** line   1154                    Error (0.185718E-11) in computing  ***
 *** numerical derivatives larger then(0.100000E-11) .                 ***


 *** WARNING in force_env_methods.F:1153 :: ASSERTION (cond) failed at ***
 *** line   1154                    Error (0.185718E-11) in computing  ***
 *** numerical derivatives larger then(0.100000E-11) .                 ***


 ENERGY| Total FORCE_EVAL ( MIXED ) energy [a.u.]:         -2210.612949082159503

 MD_VEL| Centre of mass motion (COM)
 MD_VEL| VCOM [a.u.]              0.0000000000     0.0000000000    -0.0000000000

 MD| ***************************************************************************
 MD| Step number                                                              97
 MD| Time [fs]                                                         97.000000
 MD| Conserved quantity [hartree]                            -0.221010477239E+04
 MD| ---------------------------------------------------------------------------
 MD|                                          Instantaneous             Averages
 MD| CPU time per MD step [s]                      0.659188             0.828233
 MD| Energy drift per atom [K]           0.285374954188E+01   0.345197218199E+00
 MD| Potential energy [hartree]         -0.221061294908E+04  -0.221062361383E+04
 MD| Kinetic energy [hartree]            0.508176687946E+00   0.515790669530E+00
 MD| Temperature [K]                             279.319956           283.504991
 MD| ***************************************************************************
 MD| Estimated peak process memory after this step [MiB]                     168
 mixed_energy_forces called
 got the force_env
 got the cp_subsys

 *** WARNING in force_env_methods.F:1153 :: ASSERTION (cond) failed at ***
 *** line   1154                    Error (0.185718E-11) in computing  ***
 *** numerical derivatives larger then(0.100000E-11) .                 ***


 *** WARNING in force_env_methods.F:1153 :: ASSERTION (cond) failed at ***
 *** line   1154                    Error (0.185718E-11) in computing  ***
 *** numerical derivatives larger then(0.100000E-11) .                 ***


 ENERGY| Total FORCE_EVAL ( MIXED ) energy [a.u.]:         -2210.636246669229877

 MD_VEL| Centre of mass motion (COM)
 MD_VEL| VCOM [a.u.]              0.0000000000     0.0000000000    -0.0000000000

 MD| ***************************************************************************
 MD| Step number                                                              98
 MD| Time [fs]                                                         98.000000
 MD| Conserved quantity [hartree]                            -0.221010624017E+04
 MD| ---------------------------------------------------------------------------
 MD|                                          Instantaneous             Averages
 MD| CPU time per MD step [s]                      0.628245             0.826193
 MD| Energy drift per atom [K]           0.164675058923E+01   0.358478375046E+00
 MD| Potential energy [hartree]         -0.221063624667E+04  -0.221062374274E+04
 MD| Kinetic energy [hartree]            0.530006495380E+00   0.515935728978E+00
 MD| Temperature [K]                             291.318737           283.584723
 MD| ***************************************************************************
 MD| Estimated peak process memory after this step [MiB]                     168
 mixed_energy_forces called
 got the force_env
 got the cp_subsys

 *** WARNING in force_env_methods.F:1153 :: ASSERTION (cond) failed at ***
 *** line   1154                    Error (0.185718E-11) in computing  ***
 *** numerical derivatives larger then(0.100000E-11) .                 ***


 *** WARNING in force_env_methods.F:1153 :: ASSERTION (cond) failed at ***
 *** line   1154                    Error (0.185718E-11) in computing  ***
 *** numerical derivatives larger then(0.100000E-11) .                 ***


 ENERGY| Total FORCE_EVAL ( MIXED ) energy [a.u.]:         -2210.644390848952753

 MD_VEL| Centre of mass motion (COM)
 MD_VEL| VCOM [a.u.]              0.0000000000     0.0000000000    -0.0000000000

 MD| ***************************************************************************
 MD| Step number                                                              99
 MD| Time [fs]                                                         99.000000
 MD| Conserved quantity [hartree]                            -0.221010614611E+04
 MD| ---------------------------------------------------------------------------
 MD|                                          Instantaneous             Averages
 MD| CPU time per MD step [s]                      0.768868             0.825614
 MD| Energy drift per atom [K]           0.172409971465E+01   0.372272529991E+00
 MD| Potential energy [hartree]         -0.221064439085E+04  -0.221062395131E+04
 MD| Kinetic energy [hartree]            0.538244736056E+00   0.516161072484E+00
 MD| Temperature [K]                             295.846896           283.708583
 MD| ***************************************************************************
 MD| Estimated peak process memory after this step [MiB]                     168
 mixed_energy_forces called
 got the force_env
 got the cp_subsys

 *** WARNING in force_env_methods.F:1153 :: ASSERTION (cond) failed at ***
 *** line   1154                    Error (0.185718E-11) in computing  ***
 *** numerical derivatives larger then(0.100000E-11) .                 ***


 *** WARNING in force_env_methods.F:1153 :: ASSERTION (cond) failed at ***
 *** line   1154                    Error (0.185718E-11) in computing  ***
 *** numerical derivatives larger then(0.100000E-11) .                 ***


 ENERGY| Total FORCE_EVAL ( MIXED ) energy [a.u.]:         -2210.639133526498881

 MD_VEL| Centre of mass motion (COM)
 MD_VEL| VCOM [a.u.]              0.0000000000     0.0000000000    -0.0000000000

 MD| ***************************************************************************
 MD| Step number                                                             100
 MD| Time [fs]                                                        100.000000
 MD| Conserved quantity [hartree]                            -0.221010488437E+04
 MD| ---------------------------------------------------------------------------
 MD|                                          Instantaneous             Averages
 MD| CPU time per MD step [s]                      0.564907             0.823006
 MD| Energy drift per atom [K]           0.276166616880E+01   0.396166466379E+00
 MD| Potential energy [hartree]         -0.221063913353E+04  -0.221062410313E+04
 MD| Kinetic energy [hartree]            0.534249153647E+00   0.516341953295E+00
 MD| Temperature [K]                             293.650720           283.808004
 MD| ***************************************************************************
 MD| Estimated peak process memory after this step [MiB]                     168

 -------------------------------------------------------------------------------
 -                                                                             -
 -                                DBCSR STATISTICS                             -
 -                                                                             -
 -------------------------------------------------------------------------------
 COUNTER                                    TOTAL       BLAS       SMM       ACC
 flops inhomo. stacks                           0       0.0%      0.0%      0.0%
 flops total                         0.000000E+00       0.0%      0.0%      0.0%
 flops max/rank                      0.000000E+00       0.0%      0.0%      0.0%
 matmuls inhomo. stacks                         0       0.0%      0.0%      0.0%
 matmuls total                                  0       0.0%      0.0%      0.0%
 number of processed stacks                     0       0.0%      0.0%      0.0%
 average stack size                                     0.0       0.0       0.0
 marketing flops                     0.000000E+00
 -------------------------------------------------------------------------------
 -                                                                             -
 -                      DBCSR MESSAGE PASSING PERFORMANCE                      -
 -                                                                             -
 -------------------------------------------------------------------------------
 ROUTINE             CALLS      AVE VOLUME [Bytes]
 MP_Bcast                1                     12.
 MP_Allreduce           19                     21.
 -------------------------------------------------------------------------------

 -------------------------------------------------------------------------------
 -                                                                             -
 -                                DBM STATISTICS                               -
 -                                                                             -
 -------------------------------------------------------------------------------
    M  x    N  x    K                                          COUNT     PERCENT
 -------------------------------------------------------------------------------

 -------------------------------------------------------------------------------
 -                                                                             -
 -                                GRID STATISTICS                              -
 -                                                                             -
 -------------------------------------------------------------------------------
 LP    KERNEL             BACKEND                              COUNT     PERCENT
 -------------------------------------------------------------------------------

 MEMORY| Estimated peak process memory [MiB]                                 168

 -------------------------------------------------------------------------------
 -                                                                             -
 -                         MESSAGE PASSING PERFORMANCE                         -
 -                                                                             -
 -------------------------------------------------------------------------------

 ROUTINE             CALLS      AVE VOLUME [Bytes]
 MP_Bcast            40186                  76684.
 MP_Allreduce         3068                   4476.
 MP_Sync               508
 MP_comm_split           1
 -------------------------------------------------------------------------------


 -------------------------------------------------------------------------------
 -                                                                             -
 -                           R E F E R E N C E S                               -
 -                                                                             -
 -------------------------------------------------------------------------------
 
 CP2K version 2023.1, the CP2K developers group (2023).
 CP2K is freely available from https://www.cp2k.org/ .

 Schran, C; Behler, J; Marx, D. 
 Journal of Chemical Theory and Computation, 16 (1), (2020). 
 Automated Fitting of Neural Network Potentials
 at Coupled Cluster Accuracy: Protonated Water Clusters
 as Testing Ground.
 https://doi.org/10.1021/acs.jctc.9b00805

 Schran, C; Brezina, K; Marsalek, O. 
 JOURNAL OF CHEMICAL PHYSICS, 153 (10), (2020). 
 Committee neural network potentials control
 generalization errors and enable active learning.
 https://doi.org/10.1063/5.0016004

 Schuett, Ole; Messmer, Peter; Hutter, Juerg; VandeVondele, Joost. 
 Electronic Structure Calculations on Graphics Processing Units, John
 Wiley & Sons, Ltd, 173-190 (2016). 
 GPU-Accelerated Sparse Matrix-Matrix Multiplication for
 Linear Scaling Density Functional Theory.
 https://doi.org/10.1002/9781118670712.ch8

 Borstnik, U; VandeVondele, J; Weber, V; Hutter, J. 
 PARALLEL COMPUTING, 40 (5-6), 47-58 (2014). 
 Sparse matrix multiplication: The distributed block-compressed sparse
 row library.
 https://doi.org/10.1016/j.parco.2014.03.012

 Hutter, J; Iannuzzi, M; Schiffmann, F; VandeVondele, J. 
 WIREs Comput Mol Sci., 4 (1), 15-25 (2014). 
 CP2K: atomistic simulations of condensed matter systems.
 https://doi.org/10.1002/wcms.1159

 Marek, A; Blum, V; Johanni, R; Havu, V; Lang, B; Auckenthaler, T;
 Heinecke, A; Bungartz, H; Lederer, H. 
 Journal of Physics: Condensed Matter, 26 (21), (2014). 
 The ELPA library: scalable parallel eigenvalue solutions for
 electronic structure
 theory and computational science.
 https://doi.org/10.1088/0953-8984/26/21/213201

 Behler, J. JOURNAL OF CHEMICAL PHYSICS, 134 (7), (2011). 
 Atom-centered symmetry functions for constructing high-dimensional neural network potentials.
 https://doi.org/10.1063/1.3553717

 Behler, J; Parrinello, M. 
 PHYSICAL REVIEW LETTERS, 98 (14), 146401 (2007). 
 Generalized neural-network representation of high-dimensional potential-energy surfaces.
 https://doi.org/10.1103/PhysRevLett.98.146401

 Frigo, M; Johnson, SG. 
 PROCEEDINGS OF THE IEEE, 93 (2), 216-231 (2005). 
 The design and implementation of FFTW3.
 https://doi.org/10.1109/JPROC.2004.840301


 -------------------------------------------------------------------------------
 -                                                                             -
 -                                T I M I N G                                  -
 -                                                                             -
 -------------------------------------------------------------------------------
 SUBROUTINE                       CALLS  ASD         SELF TIME        TOTAL TIME
                                MAXIMUM       AVERAGE  MAXIMUM  AVERAGE  MAXIMUM
 CP2K                                 1  1.0    0.059    0.071  145.583  145.588
 mp_sync                            508  4.8  136.763  136.953  136.763  136.953
